 ATOMS
    6    0.0000000000    0.0000000000    0.0000000000
    8    0.0000000000    0.0000000000    1.2614009982
    7    0.0000000000    1.1482466623   -0.6997899990
    7    0.0000000000   -1.1482466623   -0.6997899990
    1    0.0000000000    2.0265496485   -0.2028169999
    1    0.0000000000   -2.0265496485   -0.2028169999
    1    0.0000000000    1.1340804828   -1.7049749982
    1    0.0000000000   -1.1340804828   -1.7049749982
BEGIN_BLOCK_DATAGRID_3D
3D_charge_density
DATAGRID_3D_UNKNOWN
26 32 29
-3.779454e+00 -4.774489e+00 -4.262507e+00
7.558908e+00 0.000000e+00 0.000000e+00
0.000000e+00 9.548979e+00 0.000000e+00
0.000000e+00 0.000000e+00 8.525015e+00
 1.785090e-22 3.150470e-21 4.377220e-20 4.787710e-19 4.122540e-18 2.794540e-17
 1.491290e-16 6.265030e-16 2.072010e-15 5.394700e-15 1.105730e-14 1.784180e-14
 2.266380e-14 2.266380e-14 1.784180e-14 1.105730e-14 5.394700e-15 2.072010e-15
 6.265030e-16 1.491290e-16 2.794540e-17 4.122540e-18 4.787710e-19 4.377220e-20
 3.150470e-21 1.785090e-22 2.999060e-21 5.292980e-20 7.353990e-19 8.043660e-18
 6.926150e-17 4.695040e-16 2.505500e-15 1.052590e-14 3.481210e-14 9.063790e-14
 1.857790e-13 2.997700e-13 3.807890e-13 3.807890e-13 2.997700e-13 1.857790e-13
 9.063790e-14 3.481210e-14 1.052590e-14 2.505500e-15 4.695040e-16 6.926150e-17
 8.043660e-18 7.353990e-19 5.292980e-20 2.999060e-21 3.918610e-20 6.915890e-19
 9.608850e-18 1.051000e-16 9.049900e-16 6.134710e-15 3.273810e-14 1.375380e-13
 4.548870e-13 1.184380e-12 2.427640e-12 3.917260e-12 4.976010e-12 4.976010e-12
 3.917260e-12 2.427640e-12 1.184380e-12 4.548870e-13 1.375380e-13 3.273810e-14
 6.134710e-15 9.049900e-16 1.051000e-16 9.608850e-18 6.915890e-19 3.918610e-20
 3.985140e-19 7.033310e-18 9.772030e-17 1.068850e-15 9.203710e-15 6.239050e-14
 3.329560e-13 1.398840e-12 4.626570e-12 1.204650e-11 2.469260e-11 3.984500e-11
 5.061490e-11 5.061490e-11 3.984500e-11 2.469260e-11 1.204650e-11 4.626570e-12
 1.398840e-12 3.329560e-13 6.239050e-14 9.203710e-15 1.068850e-15 9.772030e-17
 7.033310e-18 3.985140e-19 3.156410e-18 5.570710e-17 7.739930e-16 8.465920e-15
 7.289940e-14 4.941840e-13 2.637360e-12 1.108070e-11 3.665030e-11 9.543340e-11
 1.956260e-10 3.156820e-10 4.010170e-10 4.010170e-10 3.156820e-10 1.956260e-10
 9.543340e-11 3.665030e-11 1.108070e-11 2.637360e-12 4.941840e-13 7.289940e-14
 8.465920e-15 7.739930e-16 5.570710e-17 3.156410e-18 1.947990e-17 3.438000e-16
 4.776790e-15 5.224900e-14 4.499210e-13 3.050100e-12 1.627850e-11 6.839670e-11
 2.262430e-10 5.891540e-10 1.207770e-09 1.949080e-09 2.476040e-09 2.476040e-09
 1.949080e-09 1.207770e-09 5.891540e-10 2.262430e-10 6.839670e-11 1.627850e-11
 3.050100e-12 4.499210e-13 5.224900e-14 4.776790e-15 3.438000e-16 1.947990e-17
 9.370930e-17 1.653880e-15 2.297930e-14 2.513540e-13 2.164490e-12 1.467410e-11
 7.832040e-11 3.291010e-10 1.088700e-09 2.835330e-09 5.812980e-09 9.381570e-09
 1.191840e-08 1.191840e-08 9.381570e-09 5.812980e-09 2.835330e-09 1.088700e-09
 3.291010e-10 7.832040e-11 1.467410e-11 2.164490e-12 2.513540e-13 2.297930e-14
 1.653880e-15 9.370930e-17 3.514750e-16 6.203220e-15 8.618950e-14 9.427830e-13
 8.118870e-12 5.504420e-11 2.938100e-10 1.234700e-09 4.084960e-09 1.063980e-08
 2.181610e-08 3.521210e-08 4.473590e-08 4.473590e-08 3.521210e-08 2.181610e-08
 1.063980e-08 4.084960e-09 1.234700e-09 2.938100e-10 5.504420e-11 8.118870e-12
 9.427830e-13 8.618950e-14 6.203220e-15 3.514750e-16 1.028060e-15 1.814440e-14
 2.521070e-13 2.757720e-12 2.374920e-11 1.610230e-10 8.595620e-10 3.612560e-09
 1.195350e-08 3.113850e-08 6.385480e-08 1.030740e-07 1.309590e-07 1.309590e-07
 1.030740e-07 6.385480e-08 3.113850e-08 1.195350e-08 3.612560e-09 8.595620e-10
 1.610230e-10 2.374920e-11 2.757720e-12 2.521070e-13 1.814440e-14 1.028060e-15
 2.345570e-15 4.139760e-14 5.752040e-13 6.292110e-12 5.418880e-11 3.674270e-10
 1.961520e-09 8.244660e-09 2.728370e-08 7.108200e-08 1.457830e-07 2.353440e-07
 2.990280e-07 2.990280e-07 2.353440e-07 1.457830e-07 7.108200e-08 2.728370e-08
 8.244660e-09 1.961520e-09 3.674270e-10 5.418880e-11 6.292110e-12 5.752040e-13
 4.139760e-14 2.345570e-15 4.175800e-15 7.370010e-14 1.024040e-12 1.120210e-11
 9.647680e-11 6.541890e-10 3.492600e-09 1.468130e-08 4.858870e-08 1.266000e-07
 2.596710e-07 4.192300e-07 5.326950e-07 5.326950e-07 4.192300e-07 2.596710e-07
 1.266000e-07 4.858870e-08 1.468130e-08 3.492600e-09 6.541890e-10 9.647680e-11
 1.120210e-11 1.024040e-12 7.370010e-14 4.175800e-15 5.805570e-15 1.024640e-13
 1.423710e-12 1.557420e-11 1.341330e-10 9.095470e-10 4.856080e-09 2.041360e-08
 6.756360e-08 1.760510e-07 3.611190e-07 5.830390e-07 7.408570e-07 7.408570e-07
 5.830390e-07 3.611190e-07 1.760510e-07 6.756360e-08 2.041360e-08 4.856080e-09
 9.095470e-10 1.341330e-10 1.557420e-11 1.423710e-12 1.024640e-13 5.805570e-15
 6.318890e-15 1.115230e-13 1.549580e-12 1.695090e-11 1.459890e-10 9.899380e-10
 5.285260e-09 2.221770e-08 7.353460e-08 1.916090e-07 3.930330e-07 6.345650e-07
 8.063310e-07 8.063310e-07 6.345650e-07 3.930330e-07 1.916090e-07 7.353460e-08
 2.221770e-08 5.285260e-09 9.899380e-10 1.459890e-10 1.695090e-11 1.549580e-12
 1.115230e-13 6.318890e-15 5.436070e-15 9.594090e-14 1.333040e-12 1.458190e-11
 1.255830e-10 8.515310e-10 4.546100e-09 1.910940e-08 6.324290e-08 1.647810e-07
 3.379820e-07 5.456570e-07 6.933390e-07 6.933390e-07 5.456570e-07 3.379820e-07
 1.647810e-07 6.324290e-08 1.910940e-08 4.546100e-09 8.515310e-10 1.255830e-10
 1.458190e-11 1.333040e-12 9.594090e-14 5.436070e-15 3.858720e-15 6.810030e-14
 9.461820e-13 1.034970e-11 8.912880e-11 6.043070e-10 3.225940e-09 1.355850e-08
 4.486640e-08 1.168850e-07 2.397110e-07 3.869640e-07 4.916690e-07 4.916690e-07
 3.869640e-07 2.397110e-07 1.168850e-07 4.486640e-08 1.355850e-08 3.225940e-09
 6.043070e-10 8.912880e-11 1.034970e-11 9.461820e-13 6.810030e-14 3.858720e-15
 2.700110e-15 4.765110e-14 6.620340e-13 7.241190e-12 6.235490e-11 4.227380e-10
 2.256410e-09 9.482320e-09 3.137270e-08 8.171750e-08 1.675630e-07 2.704630e-07
 3.436220e-07 3.436220e-07 2.704630e-07 1.675630e-07 8.171750e-08 3.137270e-08
 9.482320e-09 2.256410e-09 4.227380e-10 6.235490e-11 7.241190e-12 6.620340e-13
 4.765110e-14 2.700110e-15 2.700110e-15 4.765110e-14 6.620340e-13 7.241190e-12
 6.235490e-11 4.227380e-10 2.256410e-09 9.482320e-09 3.137270e-08 8.171750e-08
 1.675630e-07 2.704630e-07 3.436220e-07 3.436220e-07 2.704630e-07 1.675630e-07
 8.171750e-08 3.137270e-08 9.482320e-09 2.256410e-09 4.227380e-10 6.235490e-11
 7.241190e-12 6.620340e-13 4.765110e-14 2.700110e-15 3.858720e-15 6.810030e-14
 9.461820e-13 1.034970e-11 8.912880e-11 6.043070e-10 3.225940e-09 1.355850e-08
 4.486640e-08 1.168850e-07 2.397110e-07 3.869640e-07 4.916690e-07 4.916690e-07
 3.869640e-07 2.397110e-07 1.168850e-07 4.486640e-08 1.355850e-08 3.225940e-09
 6.043070e-10 8.912880e-11 1.034970e-11 9.461820e-13 6.810030e-14 3.858720e-15
 5.436070e-15 9.594090e-14 1.333040e-12 1.458190e-11 1.255830e-10 8.515310e-10
 4.546100e-09 1.910940e-08 6.324290e-08 1.647810e-07 3.379820e-07 5.456570e-07
 6.933390e-07 6.933390e-07 5.456570e-07 3.379820e-07 1.647810e-07 6.324290e-08
 1.910940e-08 4.546100e-09 8.515310e-10 1.255830e-10 1.458190e-11 1.333040e-12
 9.594090e-14 5.436070e-15 6.318890e-15 1.115230e-13 1.549580e-12 1.695090e-11
 1.459890e-10 9.899380e-10 5.285260e-09 2.221770e-08 7.353460e-08 1.916090e-07
 3.930330e-07 6.345650e-07 8.063310e-07 8.063310e-07 6.345650e-07 3.930330e-07
 1.916090e-07 7.353460e-08 2.221770e-08 5.285260e-09 9.899380e-10 1.459890e-10
 1.695090e-11 1.549580e-12 1.115230e-13 6.318890e-15 5.805570e-15 1.024640e-13
 1.423710e-12 1.557420e-11 1.341330e-10 9.095470e-10 4.856080e-09 2.041360e-08
 6.756360e-08 1.760510e-07 3.611190e-07 5.830390e-07 7.408570e-07 7.408570e-07
 5.830390e-07 3.611190e-07 1.760510e-07 6.756360e-08 2.041360e-08 4.856080e-09
 9.095470e-10 1.341330e-10 1.557420e-11 1.423710e-12 1.024640e-13 5.805570e-15
 4.175800e-15 7.370010e-14 1.024040e-12 1.120210e-11 9.647680e-11 6.541890e-10
 3.492600e-09 1.468130e-08 4.858870e-08 1.266000e-07 2.596710e-07 4.192300e-07
 5.326950e-07 5.326950e-07 4.192300e-07 2.596710e-07 1.266000e-07 4.858870e-08
 1.468130e-08 3.492600e-09 6.541890e-10 9.647680e-11 1.120210e-11 1.024040e-12
 7.370010e-14 4.175800e-15 2.345570e-15 4.139760e-14 5.752040e-13 6.292110e-12
 5.418880e-11 3.674270e-10 1.961520e-09 8.244660e-09 2.728370e-08 7.108200e-08
 1.457830e-07 2.353440e-07 2.990280e-07 2.990280e-07 2.353440e-07 1.457830e-07
 7.108200e-08 2.728370e-08 8.244660e-09 1.961520e-09 3.674270e-10 5.418880e-11
 6.292110e-12 5.752040e-13 4.139760e-14 2.345570e-15 1.028060e-15 1.814440e-14
 2.521070e-13 2.757720e-12 2.374920e-11 1.610230e-10 8.595620e-10 3.612560e-09
 1.195350e-08 3.113850e-08 6.385480e-08 1.030740e-07 1.309590e-07 1.309590e-07
 1.030740e-07 6.385480e-08 3.113850e-08 1.195350e-08 3.612560e-09 8.595620e-10
 1.610230e-10 2.374920e-11 2.757720e-12 2.521070e-13 1.814440e-14 1.028060e-15
 3.514750e-16 6.203220e-15 8.618950e-14 9.427830e-13 8.118870e-12 5.504420e-11
 2.938100e-10 1.234700e-09 4.084960e-09 1.063980e-08 2.181610e-08 3.521210e-08
 4.473590e-08 4.473590e-08 3.521210e-08 2.181610e-08 1.063980e-08 4.084960e-09
 1.234700e-09 2.938100e-10 5.504420e-11 8.118870e-12 9.427830e-13 8.618950e-14
 6.203220e-15 3.514750e-16 9.370930e-17 1.653880e-15 2.297930e-14 2.513540e-13
 2.164490e-12 1.467410e-11 7.832040e-11 3.291010e-10 1.088700e-09 2.835330e-09
 5.812980e-09 9.381570e-09 1.191840e-08 1.191840e-08 9.381570e-09 5.812980e-09
 2.835330e-09 1.088700e-09 3.291010e-10 7.832040e-11 1.467410e-11 2.164490e-12
 2.513540e-13 2.297930e-14 1.653880e-15 9.370930e-17 1.947990e-17 3.438000e-16
 4.776790e-15 5.224900e-14 4.499210e-13 3.050100e-12 1.627850e-11 6.839670e-11
 2.262430e-10 5.891540e-10 1.207770e-09 1.949080e-09 2.476040e-09 2.476040e-09
 1.949080e-09 1.207770e-09 5.891540e-10 2.262430e-10 6.839670e-11 1.627850e-11
 3.050100e-12 4.499210e-13 5.224900e-14 4.776790e-15 3.438000e-16 1.947990e-17
 3.156410e-18 5.570710e-17 7.739930e-16 8.465920e-15 7.289940e-14 4.941840e-13
 2.637360e-12 1.108070e-11 3.665030e-11 9.543340e-11 1.956260e-10 3.156820e-10
 4.010170e-10 4.010170e-10 3.156820e-10 1.956260e-10 9.543340e-11 3.665030e-11
 1.108070e-11 2.637360e-12 4.941840e-13 7.289940e-14 8.465920e-15 7.739930e-16
 5.570710e-17 3.156410e-18 3.985140e-19 7.033310e-18 9.772030e-17 1.068850e-15
 9.203710e-15 6.239050e-14 3.329560e-13 1.398840e-12 4.626570e-12 1.204650e-11
 2.469260e-11 3.984500e-11 5.061490e-11 5.061490e-11 3.984500e-11 2.469260e-11
 1.204650e-11 4.626570e-12 1.398840e-12 3.329560e-13 6.239050e-14 9.203710e-15
 1.068850e-15 9.772030e-17 7.033310e-18 3.985140e-19 3.918610e-20 6.915890e-19
 9.608850e-18 1.051000e-16 9.049900e-16 6.134710e-15 3.273810e-14 1.375380e-13
 4.548870e-13 1.184380e-12 2.427640e-12 3.917260e-12 4.976010e-12 4.976010e-12
 3.917260e-12 2.427640e-12 1.184380e-12 4.548870e-13 1.375380e-13 3.273810e-14
 6.134710e-15 9.049900e-16 1.051000e-16 9.608850e-18 6.915890e-19 3.918610e-20
 2.999060e-21 5.292980e-20 7.353990e-19 8.043660e-18 6.926150e-17 4.695040e-16
 2.505500e-15 1.052590e-14 3.481210e-14 9.063790e-14 1.857790e-13 2.997700e-13
 3.807890e-13 3.807890e-13 2.997700e-13 1.857790e-13 9.063790e-14 3.481210e-14
 1.052590e-14 2.505500e-15 4.695040e-16 6.926150e-17 8.043660e-18 7.353990e-19
 5.292980e-20 2.999060e-21 1.785090e-22 3.150470e-21 4.377220e-20 4.787710e-19
 4.122540e-18 2.794540e-17 1.491290e-16 6.265030e-16 2.072010e-15 5.394700e-15
 1.105730e-14 1.784180e-14 2.266380e-14 2.266380e-14 1.784180e-14 1.105730e-14
 5.394700e-15 2.072010e-15 6.265030e-16 1.491290e-16 2.794540e-17 4.122540e-18
 4.787710e-19 4.377220e-20 3.150470e-21 1.785090e-22 1.179800e-21 2.082210e-20
 2.893000e-19 3.164310e-18 2.724700e-17 1.847000e-16 9.856550e-16 4.140870e-15
 1.369520e-14 3.565750e-14 7.308710e-14 1.179330e-13 1.498070e-13 1.498070e-13
 1.179330e-13 7.308710e-14 3.565750e-14 1.369520e-14 4.140870e-15 9.856550e-16
 1.847000e-16 2.724700e-17 3.164310e-18 2.893000e-19 2.082210e-20 1.179800e-21
 1.996150e-20 3.522970e-19 4.894780e-18 5.353860e-17 4.610090e-16 3.125090e-15
 1.667740e-14 7.006560e-14 2.317350e-13 6.033760e-13 1.236770e-12 1.995690e-12
 2.535110e-12 2.535110e-12 1.995690e-12 1.236770e-12 6.033760e-13 2.317350e-13
 7.006560e-14 1.667740e-14 3.125090e-15 4.610090e-16 5.353860e-17 4.894780e-18
 3.522970e-19 1.996150e-20 2.622980e-19 4.629260e-18 6.431880e-17 7.035170e-16
 6.057920e-15 4.106640e-14 2.191620e-13 9.207880e-13 3.045570e-12 7.930250e-12
 1.625590e-11 2.623200e-11 3.332290e-11 3.332290e-11 2.623200e-11 1.625590e-11
 7.930250e-12 3.045570e-12 9.207880e-13 2.191620e-13 4.106640e-14 6.057920e-15
 7.035170e-16 6.431880e-17 4.629260e-18 2.622980e-19 2.678960e-18 4.728080e-17
 6.569230e-16 7.185510e-15 6.187530e-14 4.194660e-13 2.238710e-12 9.406400e-12
 3.111490e-11 8.102620e-11 1.661060e-10 2.680610e-10 3.405350e-10 3.405350e-10
 2.680610e-10 1.661060e-10 8.102620e-11 3.111490e-11 9.406400e-12 2.238710e-12
 4.194660e-13 6.187530e-14 7.185510e-15 6.569230e-16 4.728080e-17 2.678960e-18
 2.128550e-17 3.756680e-16 5.219630e-15 5.709430e-14 4.916650e-13 3.333300e-12
 1.779150e-11 7.476280e-11 2.473360e-10 6.441790e-10 1.320760e-09 2.131660e-09
 2.708140e-09 2.708140e-09 2.131660e-09 1.320760e-09 6.441790e-10 2.473360e-10
 7.476280e-11 1.779150e-11 3.333300e-12 4.916650e-13 5.709430e-14 5.219630e-15
 3.756680e-16 2.128550e-17 1.316640e-16 2.323760e-15 3.228750e-14 3.531850e-13
 3.041610e-12 2.062270e-11 1.100880e-10 4.626800e-10 1.530970e-09 3.988180e-09
 8.178550e-09 1.320190e-08 1.677360e-08 1.677360e-08 1.320190e-08 8.178550e-09
 3.988180e-09 1.530970e-09 4.626800e-10 1.100880e-10 2.062270e-11 3.041610e-12
 3.531850e-13 3.228750e-14 2.323760e-15 1.316640e-16 6.344050e-16 1.119690e-14
 1.555790e-13 1.701920e-12 1.465790e-11 9.939520e-11 5.306760e-10 2.230830e-09
 7.383530e-09 1.923940e-08 3.946450e-08 6.371710e-08 8.096430e-08 8.096430e-08
 6.371710e-08 3.946450e-08 1.923940e-08 7.383530e-09 2.230830e-09 5.306760e-10
 9.939520e-11 1.465790e-11 1.701920e-12 1.555790e-13 1.119690e-14 6.344050e-16
 2.382200e-15 4.204520e-14 5.842290e-13 6.391370e-12 5.505120e-11 3.733550e-10
 1.993760e-09 8.383510e-09 2.775620e-08 7.234940e-08 1.484520e-07 2.397420e-07
 3.046780e-07 3.046780e-07 2.397420e-07 1.484520e-07 7.234940e-08 2.775620e-08
 8.383510e-09 1.993760e-09 3.733550e-10 5.505120e-11 6.391370e-12 5.842290e-13
 4.204520e-14 2.382200e-15 6.973540e-15 1.230830e-13 1.710330e-12 1.871180e-11
 1.611880e-10 1.093340e-09 5.839870e-09 2.456300e-08 8.135150e-08 2.121300e-07
 4.354170e-07 7.033640e-07 8.940110e-07 8.940110e-07 7.033640e-07 4.354170e-07
 2.121300e-07 8.135150e-08 2.456300e-08 5.839870e-09 1.093340e-09 1.611880e-10
 1.871180e-11 1.710330e-12 1.230830e-13 6.973540e-15 1.591950e-14 2.809830e-13
 3.904580e-12 4.272040e-11 3.680390e-10 2.496780e-09 1.333900e-08 5.612060e-08
 1.859310e-07 4.850020e-07 9.958480e-07 1.609100e-06 2.045550e-06 2.045550e-06
 1.609100e-06 9.958480e-07 4.850020e-07 1.859310e-07 5.612060e-08 1.333900e-08
 2.496780e-09 3.680390e-10 4.272040e-11 3.904580e-12 2.809830e-13 1.591950e-14
 2.835230e-14 5.004300e-13 6.954190e-12 7.608980e-11 6.555670e-10 4.447910e-09
 2.376690e-08 1.000160e-07 3.314490e-07 8.648340e-07 1.776240e-06 2.870690e-06
 3.649780e-06 3.649780e-06 2.870690e-06 1.776240e-06 8.648340e-07 3.314490e-07
 1.000160e-07 2.376690e-08 4.447910e-09 6.555670e-10 7.608980e-11 6.954190e-12
 5.004300e-13 2.835230e-14 3.942750e-14 6.959110e-13 9.670760e-12 1.058150e-10
 9.117090e-10 6.186180e-09 3.305820e-08 1.391340e-07 4.611540e-07 1.203470e-06
 2.472130e-06 3.995880e-06 5.080710e-06 5.080710e-06 3.995880e-06 2.472130e-06
 1.203470e-06 4.611540e-07 1.391340e-07 3.305820e-08 6.186180e-09 9.117090e-10
 1.058150e-10 9.670760e-12 6.959110e-13 3.942750e-14 4.291900e-14 7.575270e-13
 1.052690e-11 1.151810e-10 9.923939e-10 6.733590e-09 3.598330e-08 1.514440e-07
 5.019540e-07 1.309940e-06 2.690860e-06 4.349460e-06 5.530290e-06 5.530290e-06
 4.349460e-06 2.690860e-06 1.309940e-06 5.019540e-07 1.514440e-07 3.598330e-08
 6.733590e-09 9.923939e-10 1.151810e-10 1.052690e-11 7.575270e-13 4.291900e-14
 3.692310e-14 6.516770e-13 9.055560e-12 9.907740e-11 8.535830e-10 5.791180e-09
 3.094330e-08 1.302120e-07 4.315040e-07 1.125880e-06 2.312360e-06 3.737130e-06
 4.751350e-06 4.751350e-06 3.737130e-06 2.312360e-06 1.125880e-06 4.315040e-07
 1.302120e-07 3.094330e-08 5.791180e-09 8.535830e-10 9.907740e-11 9.055560e-12
 6.516770e-13 3.692310e-14 2.620590e-14 4.624940e-13 6.426220e-12 7.030230e-11
 6.055910e-10 4.107860e-09 2.194340e-08 9.231030e-08 3.057920e-07 7.975650e-07
 1.637470e-06 2.645650e-06 3.363120e-06 3.363120e-06 2.645650e-06 1.637470e-06
 7.975650e-07 3.057920e-07 9.231030e-08 2.194340e-08 4.107860e-09 6.055910e-10
 7.030230e-11 6.426220e-12 4.624940e-13 2.620590e-14 1.833310e-14 3.235270e-13
 4.494860e-12 4.916710e-11 4.234550e-10 2.871700e-09 1.533530e-08 6.448640e-08
 2.135250e-07 5.566520e-07 1.142350e-06 1.845060e-06 2.344970e-06 2.344970e-06
 1.845060e-06 1.142350e-06 5.566520e-07 2.135250e-07 6.448640e-08 1.533530e-08
 2.871700e-09 4.234550e-10 4.916710e-11 4.494860e-12 3.235270e-13 1.833310e-14
 1.833310e-14 3.235270e-13 4.494860e-12 4.916710e-11 4.234550e-10 2.871700e-09
 1.533530e-08 6.448640e-08 2.135250e-07 5.566520e-07 1.142350e-06 1.845060e-06
 2.344970e-06 2.344970e-06 1.845060e-06 1.142350e-06 5.566520e-07 2.135250e-07
 6.448640e-08 1.533530e-08 2.871700e-09 4.234550e-10 4.916710e-11 4.494860e-12
 3.235270e-13 1.833310e-14 2.620590e-14 4.624940e-13 6.426220e-12 7.030230e-11
 6.055910e-10 4.107860e-09 2.194340e-08 9.231030e-08 3.057920e-07 7.975650e-07
 1.637470e-06 2.645650e-06 3.363120e-06 3.363120e-06 2.645650e-06 1.637470e-06
 7.975650e-07 3.057920e-07 9.231030e-08 2.194340e-08 4.107860e-09 6.055910e-10
 7.030230e-11 6.426220e-12 4.624940e-13 2.620590e-14 3.692310e-14 6.516770e-13
 9.055560e-12 9.907740e-11 8.535830e-10 5.791180e-09 3.094330e-08 1.302120e-07
 4.315040e-07 1.125880e-06 2.312360e-06 3.737130e-06 4.751350e-06 4.751350e-06
 3.737130e-06 2.312360e-06 1.125880e-06 4.315040e-07 1.302120e-07 3.094330e-08
 5.791180e-09 8.535830e-10 9.907740e-11 9.055560e-12 6.516770e-13 3.692310e-14
 4.291900e-14 7.575270e-13 1.052690e-11 1.151810e-10 9.923939e-10 6.733590e-09
 3.598330e-08 1.514440e-07 5.019540e-07 1.309940e-06 2.690860e-06 4.349460e-06
 5.530290e-06 5.530290e-06 4.349460e-06 2.690860e-06 1.309940e-06 5.019540e-07
 1.514440e-07 3.598330e-08 6.733590e-09 9.923939e-10 1.151810e-10 1.052690e-11
 7.575270e-13 4.291900e-14 3.942750e-14 6.959110e-13 9.670760e-12 1.058150e-10
 9.117090e-10 6.186180e-09 3.305820e-08 1.391340e-07 4.611540e-07 1.203470e-06
 2.472130e-06 3.995880e-06 5.080710e-06 5.080710e-06 3.995880e-06 2.472130e-06
 1.203470e-06 4.611540e-07 1.391340e-07 3.305820e-08 6.186180e-09 9.117090e-10
 1.058150e-10 9.670760e-12 6.959110e-13 3.942750e-14 2.835230e-14 5.004300e-13
 6.954190e-12 7.608980e-11 6.555670e-10 4.447910e-09 2.376690e-08 1.000160e-07
 3.314490e-07 8.648340e-07 1.776240e-06 2.870690e-06 3.649780e-06 3.649780e-06
 2.870690e-06 1.776240e-06 8.648340e-07 3.314490e-07 1.000160e-07 2.376690e-08
 4.447910e-09 6.555670e-10 7.608980e-11 6.954190e-12 5.004300e-13 2.835230e-14
 1.591950e-14 2.809830e-13 3.904580e-12 4.272040e-11 3.680390e-10 2.496780e-09
 1.333900e-08 5.612060e-08 1.859310e-07 4.850020e-07 9.958480e-07 1.609100e-06
 2.045550e-06 2.045550e-06 1.609100e-06 9.958480e-07 4.850020e-07 1.859310e-07
 5.612060e-08 1.333900e-08 2.496780e-09 3.680390e-10 4.272040e-11 3.904580e-12
 2.809830e-13 1.591950e-14 6.973540e-15 1.230830e-13 1.710330e-12 1.871180e-11
 1.611880e-10 1.093340e-09 5.839870e-09 2.456300e-08 8.135150e-08 2.121300e-07
 4.354170e-07 7.033640e-07 8.940110e-07 8.940110e-07 7.033640e-07 4.354170e-07
 2.121300e-07 8.135150e-08 2.456300e-08 5.839870e-09 1.093340e-09 1.611880e-10
 1.871180e-11 1.710330e-12 1.230830e-13 6.973540e-15 2.382200e-15 4.204520e-14
 5.842290e-13 6.391370e-12 5.505120e-11 3.733550e-10 1.993760e-09 8.383510e-09
 2.775620e-08 7.234940e-08 1.484520e-07 2.397420e-07 3.046780e-07 3.046780e-07
 2.397420e-07 1.484520e-07 7.234940e-08 2.775620e-08 8.383510e-09 1.993760e-09
 3.733550e-10 5.505120e-11 6.391370e-12 5.842290e-13 4.204520e-14 2.382200e-15
 6.344050e-16 1.119690e-14 1.555790e-13 1.701920e-12 1.465790e-11 9.939520e-11
 5.306760e-10 2.230830e-09 7.383530e-09 1.923940e-08 3.946450e-08 6.371710e-08
 8.096430e-08 8.096430e-08 6.371710e-08 3.946450e-08 1.923940e-08 7.383530e-09
 2.230830e-09 5.306760e-10 9.939520e-11 1.465790e-11 1.701920e-12 1.555790e-13
 1.119690e-14 6.344050e-16 1.316640e-16 2.323760e-15 3.228750e-14 3.531850e-13
 3.041610e-12 2.062270e-11 1.100880e-10 4.626800e-10 1.530970e-09 3.988180e-09
 8.178550e-09 1.320190e-08 1.677360e-08 1.677360e-08 1.320190e-08 8.178550e-09
 3.988180e-09 1.530970e-09 4.626800e-10 1.100880e-10 2.062270e-11 3.041610e-12
 3.531850e-13 3.228750e-14 2.323760e-15 1.316640e-16 2.128550e-17 3.756680e-16
 5.219630e-15 5.709430e-14 4.916650e-13 3.333300e-12 1.779150e-11 7.476280e-11
 2.473360e-10 6.441790e-10 1.320760e-09 2.131660e-09 2.708140e-09 2.708140e-09
 2.131660e-09 1.320760e-09 6.441790e-10 2.473360e-10 7.476280e-11 1.779150e-11
 3.333300e-12 4.916650e-13 5.709430e-14 5.219630e-15 3.756680e-16 2.128550e-17
 2.678960e-18 4.728080e-17 6.569230e-16 7.185510e-15 6.187530e-14 4.194660e-13
 2.238710e-12 9.406400e-12 3.111490e-11 8.102620e-11 1.661060e-10 2.680610e-10
 3.405350e-10 3.405350e-10 2.680610e-10 1.661060e-10 8.102620e-11 3.111490e-11
 9.406400e-12 2.238710e-12 4.194660e-13 6.187530e-14 7.185510e-15 6.569230e-16
 4.728080e-17 2.678960e-18 2.622980e-19 4.629260e-18 6.431880e-17 7.035170e-16
 6.057920e-15 4.106640e-14 2.191620e-13 9.207880e-13 3.045570e-12 7.930250e-12
 1.625590e-11 2.623200e-11 3.332290e-11 3.332290e-11 2.623200e-11 1.625590e-11
 7.930250e-12 3.045570e-12 9.207880e-13 2.191620e-13 4.106640e-14 6.057920e-15
 7.035170e-16 6.431880e-17 4.629260e-18 2.622980e-19 1.996150e-20 3.522970e-19
 4.894780e-18 5.353860e-17 4.610090e-16 3.125090e-15 1.667740e-14 7.006560e-14
 2.317350e-13 6.033760e-13 1.236770e-12 1.995690e-12 2.535110e-12 2.535110e-12
 1.995690e-12 1.236770e-12 6.033760e-13 2.317350e-13 7.006560e-14 1.667740e-14
 3.125090e-15 4.610090e-16 5.353860e-17 4.894780e-18 3.522970e-19 1.996150e-20
 1.179800e-21 2.082210e-20 2.893000e-19 3.164310e-18 2.724700e-17 1.847000e-16
 9.856550e-16 4.140870e-15 1.369520e-14 3.565750e-14 7.308710e-14 1.179330e-13
 1.498070e-13 1.498070e-13 1.179330e-13 7.308710e-14 3.565750e-14 1.369520e-14
 4.140870e-15 9.856550e-16 1.847000e-16 2.724700e-17 3.164310e-18 2.893000e-19
 2.082210e-20 1.179800e-21 6.043500e-21 1.066610e-19 1.481940e-18 1.620930e-17
 1.395760e-16 9.461700e-16 5.049410e-15 2.121420e-14 7.016550e-14 1.826970e-13
 3.744920e-13 6.043030e-13 7.676480e-13 7.676480e-13 6.043030e-13 3.744920e-13
 1.826970e-13 7.016550e-14 2.121420e-14 5.049410e-15 9.461700e-16 1.395760e-16
 1.620930e-17 1.481940e-18 1.066610e-19 6.043500e-21 1.029790e-19 1.817470e-18
 2.525190e-17 2.762070e-16 2.378430e-15 1.612370e-14 8.605100e-14 3.615500e-13
 1.195910e-12 3.114160e-12 6.383890e-12 1.030200e-11 1.308710e-11 1.308710e-11
 1.030200e-11 6.383890e-12 3.114160e-12 1.195910e-12 3.615500e-13 8.605100e-14
 1.612370e-14 2.378430e-15 2.762070e-16 2.525190e-17 1.817470e-18 1.029790e-19
 1.363600e-18 2.406630e-17 3.343820e-16 3.657580e-15 3.149670e-14 2.135330e-13
 1.139710e-12 4.789120e-12 1.584320e-11 4.126180e-11 8.459640e-11 1.365320e-10
 1.734530e-10 1.734530e-10 1.365320e-10 8.459640e-11 4.126180e-11 1.584320e-11
 4.789120e-12 1.139710e-12 2.135330e-13 3.149670e-14 3.657580e-15 3.343820e-16
 2.406630e-17 1.363600e-18 1.401930e-17 2.474300e-16 3.437930e-15 3.760660e-14
 3.238660e-13 2.195880e-12 1.172200e-11 4.926570e-11 1.630160e-10 4.246580e-10
 8.708470e-10 1.405730e-09 1.786050e-09 1.786050e-09 1.405730e-09 8.708470e-10
 4.246580e-10 1.630160e-10 4.926570e-11 1.172200e-11 2.195880e-12 3.238660e-13
 3.760660e-14 3.437930e-15 2.474300e-16 1.401930e-17 1.119680e-16 1.976180e-15
 2.745900e-14 3.003860e-13 2.587170e-12 1.754440e-11 9.367610e-11 3.938230e-10
 1.303590e-09 3.397150e-09 6.969030e-09 1.125260e-08 1.429920e-08 1.429920e-08
 1.125260e-08 6.969030e-09 3.397150e-09 1.303590e-09 3.938230e-10 9.367610e-11
 1.754440e-11 2.587170e-12 3.003860e-13 2.745900e-14 1.976180e-15 1.119680e-16
 6.952820e-16 1.227170e-14 1.705240e-13 1.865600e-12 1.607050e-11 1.090040e-10
 5.822080e-10 2.448720e-09 8.109650e-09 2.114540e-08 4.340070e-08 7.010600e-08
 8.910630e-08 8.910630e-08 7.010600e-08 4.340070e-08 2.114540e-08 8.109650e-09
 2.448720e-09 5.822080e-10 1.090040e-10 1.607050e-11 1.865600e-12 1.705240e-13
 1.227170e-14 6.952820e-16 3.359650e-15 5.929980e-14 8.240660e-13 9.016700e-12
 7.768650e-11 5.271010e-10 2.816570e-09 1.185310e-08 3.928210e-08 1.025010e-07
 2.105270e-07 3.402520e-07 4.325960e-07 4.325960e-07 3.402520e-07 2.105270e-07
 1.025010e-07 3.928210e-08 1.185310e-08 2.816570e-09 5.271010e-10 7.768650e-11
 9.016700e-12 8.240660e-13 5.929980e-14 3.359650e-15 1.264130e-14 2.231360e-13
 3.101080e-12 3.393610e-11 2.924600e-10 1.985090e-09 1.061310e-08 4.469490e-08
 1.482460e-07 3.871720e-07 7.958840e-07 1.287140e-06 1.637070e-06 1.637070e-06
 1.287140e-06 7.958840e-07 3.871720e-07 1.482460e-07 4.469490e-08 1.061310e-08
 1.985090e-09 2.924600e-10 3.393610e-11 3.101080e-12 2.231360e-13 1.264130e-14
 3.705950e-14 6.541760e-13 9.092350e-12 9.951630e-11 8.578560e-10 5.825150e-09
 3.116200e-08 1.313350e-07 4.360170e-07 1.139850e-06 2.345280e-06 3.795660e-06
 4.829490e-06 4.829490e-06 3.795660e-06 2.345280e-06 1.139850e-06 4.360170e-07
 1.313350e-07 3.116200e-08 5.825150e-09 8.578560e-10 9.951630e-11 9.092350e-12
 6.541760e-13 3.705950e-14 8.468720e-14 1.494960e-12 2.078010e-11 2.274740e-10
 1.961380e-09 1.332380e-08 7.131730e-08 3.007960e-07 9.994940e-07 2.615400e-06
 5.386130e-06 8.723450e-06 1.110410e-05 1.110410e-05 8.723450e-06 5.386130e-06
 2.615400e-06 9.994940e-07 3.007960e-07 7.131730e-08 1.332380e-08 1.961380e-09
 2.274740e-10 2.078010e-11 1.494960e-12 8.468720e-14 1.509300e-13 2.664410e-12
 3.703770e-11 4.054890e-10 3.497030e-09 2.376310e-08 1.272530e-07 5.370380e-07
 1.785760e-06 4.676470e-06 9.638080e-06 1.562030e-05 1.989130e-05 1.989130e-05
 1.562030e-05 9.638080e-06 4.676470e-06 1.785760e-06 5.370380e-07 1.272530e-07
 2.376310e-08 3.497030e-09 4.054890e-10 3.703770e-11 2.664410e-12 1.509300e-13
 2.099790e-13 3.706830e-12 5.152950e-11 5.641780e-10 4.866120e-09 3.307220e-08
 1.771490e-07 7.478630e-07 2.487820e-06 6.517950e-06 1.343980e-05 2.179160e-05
 2.775820e-05 2.775820e-05 2.179160e-05 1.343980e-05 6.517950e-06 2.487820e-06
 7.478630e-07 1.771490e-07 3.307220e-08 4.866120e-09 5.641780e-10 5.152950e-11
 3.706830e-12 2.099790e-13 2.286230e-13 4.035840e-12 5.610170e-11 6.142210e-10
 5.297620e-09 3.600420e-08 1.928520e-07 8.141510e-07 2.708330e-06 7.095760e-06
 1.463170e-05 2.372540e-05 3.022290e-05 3.022290e-05 2.372540e-05 1.463170e-05
 7.095760e-06 2.708330e-06 8.141510e-07 1.928520e-07 3.600420e-08 5.297620e-09
 6.142210e-10 5.610170e-11 4.035840e-12 2.286230e-13 1.966810e-13 3.471730e-12
 4.825550e-11 5.282510e-10 4.555330e-09 3.095180e-08 1.657360e-07 6.993960e-07
 2.325510e-06 6.089730e-06 1.255100e-05 2.034250e-05 2.590650e-05 2.590650e-05
 2.034250e-05 1.255100e-05 6.089730e-06 2.325510e-06 6.993960e-07 1.657360e-07
 3.095180e-08 4.555330e-09 5.282510e-10 4.825550e-11 3.471730e-12 1.966810e-13
 1.395530e-13 2.462990e-12 3.422830e-11 3.746020e-10 3.229210e-09 2.193060e-08
 1.173530e-07 4.948160e-07 1.643700e-06 4.299910e-06 8.853260e-06 1.433700e-05
 1.824880e-05 1.824880e-05 1.433700e-05 8.853260e-06 4.299910e-06 1.643700e-06
 4.948160e-07 1.173530e-07 2.193060e-08 3.229210e-09 3.746020e-10 3.422830e-11
 2.462990e-12 1.395530e-13 9.758130e-14 1.721930e-12 2.392430e-11 2.617510e-10
 2.255400e-09 1.530780e-08 8.184780e-08 3.447590e-07 1.143890e-06 2.988700e-06
 6.146270e-06 9.943650e-06 1.264960e-05 1.264960e-05 9.943650e-06 6.146270e-06
 2.988700e-06 1.143890e-06 3.447590e-07 8.184780e-08 1.530780e-08 2.255400e-09
 2.617510e-10 2.392430e-11 1.721930e-12 9.758130e-14 9.758130e-14 1.721930e-12
 2.392430e-11 2.617510e-10 2.255400e-09 1.530780e-08 8.184780e-08 3.447590e-07
 1.143890e-06 2.988700e-06 6.146270e-06 9.943650e-06 1.264960e-05 1.264960e-05
 9.943650e-06 6.146270e-06 2.988700e-06 1.143890e-06 3.447590e-07 8.184780e-08
 1.530780e-08 2.255400e-09 2.617510e-10 2.392430e-11 1.721930e-12 9.758130e-14
 1.395530e-13 2.462990e-12 3.422830e-11 3.746020e-10 3.229210e-09 2.193060e-08
 1.173530e-07 4.948160e-07 1.643700e-06 4.299910e-06 8.853260e-06 1.433700e-05
 1.824880e-05 1.824880e-05 1.433700e-05 8.853260e-06 4.299910e-06 1.643700e-06
 4.948160e-07 1.173530e-07 2.193060e-08 3.229210e-09 3.746020e-10 3.422830e-11
 2.462990e-12 1.395530e-13 1.966810e-13 3.471730e-12 4.825550e-11 5.282510e-10
 4.555330e-09 3.095180e-08 1.657360e-07 6.993960e-07 2.325510e-06 6.089730e-06
 1.255100e-05 2.034250e-05 2.590650e-05 2.590650e-05 2.034250e-05 1.255100e-05
 6.089730e-06 2.325510e-06 6.993960e-07 1.657360e-07 3.095180e-08 4.555330e-09
 5.282510e-10 4.825550e-11 3.471730e-12 1.966810e-13 2.286230e-13 4.035840e-12
 5.610170e-11 6.142210e-10 5.297620e-09 3.600420e-08 1.928520e-07 8.141510e-07
 2.708330e-06 7.095760e-06 1.463170e-05 2.372540e-05 3.022290e-05 3.022290e-05
 2.372540e-05 1.463170e-05 7.095760e-06 2.708330e-06 8.141510e-07 1.928520e-07
 3.600420e-08 5.297620e-09 6.142210e-10 5.610170e-11 4.035840e-12 2.286230e-13
 2.099790e-13 3.706830e-12 5.152950e-11 5.641780e-10 4.866120e-09 3.307220e-08
 1.771490e-07 7.478630e-07 2.487820e-06 6.517950e-06 1.343980e-05 2.179160e-05
 2.775820e-05 2.775820e-05 2.179160e-05 1.343980e-05 6.517950e-06 2.487820e-06
 7.478630e-07 1.771490e-07 3.307220e-08 4.866120e-09 5.641780e-10 5.152950e-11
 3.706830e-12 2.099790e-13 1.509300e-13 2.664410e-12 3.703770e-11 4.054890e-10
 3.497030e-09 2.376310e-08 1.272530e-07 5.370380e-07 1.785760e-06 4.676470e-06
 9.638080e-06 1.562030e-05 1.989130e-05 1.989130e-05 1.562030e-05 9.638080e-06