 CRYSTAL
 PRIMVEC
    2.7100000000    2.7100000000    0.0000000000
    2.7100000000    0.0000000000    2.7100000000
    0.0000000000    2.7100000000    2.7100000000
 CONVVEC
    5.4200000000    0.0000000000    0.0000000000
    0.0000000000    5.4200000000    0.0000000000
    0.0000000000    0.0000000000    5.4200000000
 PRIMCOORD
 2 1
 16      0.0000000000     0.0000000000     0.0000000000
 30      1.3550000000    -1.3550000000    -1.3550000000
