ITEM: TIMESTEP
0
ITEM: NUMBER OF ATOMS
12
ITEM: BOX BOUNDS pp pp pp
0 3.74183178
0 3.24043373
0 4.5826988
ITEM: ATOMS id element xs ys zs
 1 Ni 0    0       0
 2 Ni 0.5  0       0
 3 Ni 0.25 0.5     0
 4 Ni 0.75 0.5     0
 5 Ni 0.25 0.16666 0.3333
 6 Ni 0.75 0.16666 0.3333
 7 Ni 0    0.66666 0.3333
 8 Ni 0.5  0.66666 0.3333
 9 Ni 0    0.33333 0.6666
10 Ni 0.5  0.33333 0.6666
11 Ni 0.25 0.83333 0.6666
12 Ni 0.75 0.83333 0.6666
