
12 atoms
1 atom types

0.0 3.7418120584153196 xlo xhi
0.0 3.2404166510686196 ylo yhi
0.0 4.5826746465671997 zlo zhi

Masses

1 10.821 # Ni

Atoms # atomic

1   1                        0                      0                      0
2   1       1.8709060292076598                      0                      0
3   1       0.9354530146038299     1.6202083255343098                      0
4   1       2.8063590438114896     1.6202083255343098                      0
5   1       0.9354530146038299    0.54004783906709619     1.5274054597008475
6   1       2.8063590438114896    0.54004783906709619     1.5274054597008475
7   1                        0     2.1602561646014062     1.5274054597008475
8   1       1.8709060292076598     2.1602561646014062     1.5274054597008475
9   1                        0     1.0801280823007031      3.054810919401695
10  1       1.8709060292076598     1.0801280823007031      3.054810919401695
11  1       0.9354530146038299     2.7003364078350129      3.054810919401695
12  1       2.8063590438114896     2.7003364078350129      3.054810919401695

